 Gaussian 16, Revision A.03,
 Gaussian 16:  EM64L-G16RevA.03 25-Dec-2016

 ----------------------------------------------------------------------
 #P lc-whpbe/Def2SVP iop(3/107=1831000000,3/108=1831000000) scf(maxcyc=
 512) scrf=(pcm,solvent=toluene) td=(Singlets,nstates=15)
 ----------------------------------------------------------------------

 -----------
 Si2 H26 C24
 -----------
 Symbolic Z-matrix:
 Charge =  0 Multiplicity = 1

                         Standard orientation:
 ---------------------------------------------------------------------
 Center     Atomic      Atomic             Coordinates (Angstroms)
 Number     Number       Type             X           Y           Z
 ---------------------------------------------------------------------
      1          6           0       -4.004944   -0.009446   -0.000090
      2          6           0       -2.810461   -0.008438   -0.000201
      3          6           0       -1.390047   -0.004587   -0.000134
      4          6           0       -0.706702    1.203022   -0.000030
      5          6           0       -0.698813   -1.207656   -0.000192
      6          6           0       -1.390651    2.441911    0.000032
      7          6           0        0.698813    1.207659    0.000020
      8          6           0        0.706701   -1.203019   -0.000142
      9          6           0       -1.374486   -2.451026   -0.000301
     10          1           0       -2.463001    2.430161   -0.000002
     11          6           0       -0.716776    3.597715    0.000132
     12          6           0        1.390047    0.004589   -0.000033
     13          6           0        1.374485    2.451030    0.000125
     14          6           0        1.390651   -2.441908   -0.000209
     15          6           0       -0.693060   -3.602370   -0.000360
     16          1           0       -2.446817   -2.446004   -0.000336
     17          6           0        0.693058    3.602374    0.000179
     18          6           0        2.810462    0.008436    0.000025
     19          1           0        2.446815    2.446009    0.000159
     20          1           0        2.463001   -2.430158   -0.000178
     21          6           0        0.716774   -3.597711   -0.000314
     22          1           0       -1.219523   -4.537610   -0.000443
     23          1           0        1.219521    4.537615    0.000257
     24          6           0        4.004945    0.009437    0.000074
     25          1           0       -1.249473    4.529420    0.000179
     26          1           0        1.249471   -4.529417   -0.000366
     27         14           0       -5.842888   -0.003101    0.000065
     28          6           0       -6.424337   -0.877011   -1.524122
     29          6           0       -6.406835    1.759842    0.002384
     30          6           0       -6.424077   -0.880943    1.522090
     31         14           0        5.842889    0.003097    0.000119
     32          6           0        6.406849   -1.759840   -0.003003
     33          6           0        6.424165    0.876262    1.524799
     34          6           0        6.424237    0.881684   -1.521417
     35          1           0        6.045185   -2.283608    0.871602
     36          1           0        7.487842   -1.815533   -0.003106
     37          1           0        6.045167   -2.280511   -0.879448
     38          1           0        6.058854    0.383341    2.415489
     39          1           0        6.073462    1.899276    1.543271
     40          1           0        7.505642    0.891912    1.568240
     41          1           0       -6.059157   -0.384509   -2.415098
     42          1           0       -7.505819   -0.892711   -1.567412
     43          1           0       -6.073610   -1.900025   -1.542147
     44          1           0       -6.073421   -1.904026    1.537377
     45          1           0       -7.505552   -0.896684    1.565562
     46          1           0       -6.058681   -0.390786    2.414270
     47          1           0       -6.045228    2.283188   -0.872498
     48          1           0       -6.045087    2.280930    0.878554
     49          1           0       -7.487828    1.815545    0.002538
     50          1           0        6.058954    0.391946   -2.413873
     51          1           0        7.505716    0.897469   -1.564757
     52          1           0        6.073563    1.904767   -1.536256
 ---------------------------------------------------------------------

 SCF Done:  E(RLC-wHPBE) =  -1507.75968381     A.U. after   15 cycles

 Excitation energies and oscillator strengths:

 Excited State   1:      Singlet-A      3.4772 eV  356.57 nm  f=0.7094  <S**2>=0.000
      98 ->101         0.12765
      99 ->100         0.68105
 This state for optimization and/or second-order correction.
 Total Energy, E(TD-HF/TD-DFT) =  -1507.63190069
 Copying the excited state density for this state as the 1-particle RhoCI density.

 Excited State   2:      Singlet-A      4.5538 eV  272.27 nm  f=0.0399  <S**2>=0.000
      98 ->100         0.55222
      99 ->101        -0.41617

 Excited State   3:      Singlet-A      5.5164 eV  224.75 nm  f=0.0001  <S**2>=0.000
      89 ->106         0.10242
      90 ->100        -0.14390
      93 ->106        -0.27334
      94 ->100         0.45473
      94 ->102         0.23556
      95 ->104        -0.15404
      96 ->105         0.13438
      99 ->105        -0.15690

 Excited State   4:      Singlet-A      5.5533 eV  223.26 nm  f=0.0000  <S**2>=0.000
      89 ->100        -0.14473
      93 ->100         0.42497
      93 ->102         0.23074
      94 ->106        -0.27309
      95 ->105         0.17440
      96 ->104        -0.15237
      99 ->104         0.18680

 Excited State   5:      Singlet-A      5.5682 eV  222.66 nm  f=0.1633  <S**2>=0.000
      93 ->104        -0.10401
      94 ->105         0.10524
      95 ->106        -0.12809
      96 ->100         0.45122
      97 ->103         0.16980
      98 ->101         0.13846
      99 ->102        -0.41404

 Excited State   6:      Singlet-A      5.6441 eV  219.67 nm  f=0.0000  <S**2>=0.000
      96 ->103         0.12991
      97 ->100         0.57780
      97 ->102        -0.13590
      99 ->103         0.33440

 Excited State   7:      Singlet-A      5.7264 eV  216.51 nm  f=2.1826  <S**2>=0.000
      98 ->100         0.42155
      99 ->101         0.55308

 Excited State   8:      Singlet-A      6.0133 eV  206.18 nm  f=0.0000  <S**2>=0.000
      93 ->105         0.18550
      94 ->104        -0.18746
      95 ->100         0.46632
      95 ->102         0.16979
      96 ->106        -0.18580
      99 ->106         0.25978

 Excited State   9:      Singlet-A      6.0691 eV  204.29 nm  f=0.0000  <S**2>=0.000
      86 ->104        -0.12483
      88 ->105         0.13114
      93 ->100        -0.26116
      93 ->102        -0.11690
      94 ->106         0.13980
      95 ->105         0.29898
      96 ->104        -0.26142
      99 ->104         0.38030

 Excited State  10:      Singlet-A      6.0823 eV  203.84 nm  f=0.0016  <S**2>=0.000
      86 ->105        -0.13678
      88 ->104         0.14038
      93 ->106        -0.11267
      94 ->100         0.23987
      95 ->104         0.31721
      96 ->105        -0.27515
      99 ->105         0.37817

 Excited State  11:      Singlet-A      6.6186 eV  187.33 nm  f=0.1568  <S**2>=0.000
      93 ->104         0.10863
      94 ->105        -0.10956
      96 ->100        -0.35684
      96 ->102        -0.11860
      97 ->103         0.10902
      98 ->101         0.40468
      99 ->100        -0.12603
      99 ->102        -0.33010

 Excited State  12:      Singlet-A      6.8220 eV  181.74 nm  f=0.3013  <S**2>=0.000
      96 ->100         0.27794
      98 ->101         0.45976
      99 ->100        -0.11046
      99 ->102         0.40769

 Excited State  13:      Singlet-A      6.8475 eV  181.07 nm  f=0.0000  <S**2>=0.000
      97 ->100        -0.38098
      97 ->102        -0.16702
      99 ->103         0.55430

 Excited State  14:      Singlet-A      6.8841 eV  180.10 nm  f=0.0000  <S**2>=0.000
      92 ->100         0.11074
      95 ->100        -0.20560
      95 ->102         0.13540
      97 ->101         0.42816
      98 ->103        -0.34990
      99 ->106         0.26808
      99 ->111        -0.10137

 Excited State  15:      Singlet-A      7.2298 eV  171.49 nm  f=0.0021  <S**2>=0.000
      86 ->100         0.25646
      91 ->100         0.10662
      93 ->104        -0.26483
      94 ->105         0.26362
      95 ->106        -0.15179
      96 ->100        -0.21096
      96 ->102         0.20711
      97 ->103        -0.14947
      98 ->101         0.22412

 The electronic state is 1-A.
 Alpha  occ. eigenvalues --  -66.38299 -66.38298 -10.81027 -10.81016 -10.79668
 Alpha  occ. eigenvalues --  -10.79651 -10.79558 -10.79550 -10.77755 -10.77752
 Alpha  occ. eigenvalues --  -10.77740 -10.77739 -10.77678 -10.77673 -10.77535
 Alpha  occ. eigenvalues --  -10.77534 -10.77517 -10.77514 -10.75055 -10.75051
 Alpha  occ. eigenvalues --  -10.73626 -10.73626 -10.73565 -10.73565 -10.73562
 Alpha  occ. eigenvalues --  -10.73562  -5.90098  -5.90098  -4.13482  -4.13482
 Alpha  occ. eigenvalues --   -4.13309  -4.13309  -4.13306  -4.13306  -1.25171
 Alpha  occ. eigenvalues --   -1.19950  -1.15010  -1.14251  -1.06848  -1.06137
 Alpha  occ. eigenvalues --   -1.05407  -1.04755  -1.01195  -1.00417  -0.99383
 Alpha  occ. eigenvalues --   -0.95747  -0.95747  -0.95703  -0.95703  -0.93244
 Alpha  occ. eigenvalues --   -0.89812  -0.89416  -0.85468  -0.80185  -0.78002
 Alpha  occ. eigenvalues --   -0.76996  -0.75181  -0.72344  -0.70483  -0.69458
 Alpha  occ. eigenvalues --   -0.69039  -0.68312  -0.64665  -0.64077  -0.63344
 Alpha  occ. eigenvalues --   -0.62740  -0.62495  -0.62038  -0.61876  -0.60448
 Alpha  occ. eigenvalues --   -0.60424  -0.60383  -0.60376  -0.58335  -0.58334
 Alpha  occ. eigenvalues --   -0.58322  -0.58296  -0.58223  -0.56882  -0.56882
 Alpha  occ. eigenvalues --   -0.55499  -0.54301  -0.53988  -0.53919  -0.53360
 Alpha  occ. eigenvalues --   -0.52670  -0.52474  -0.49718  -0.48492  -0.48407
 Alpha  occ. eigenvalues --   -0.47637  -0.47615  -0.43420  -0.43173  -0.42713
 Alpha  occ. eigenvalues --   -0.41031  -0.40161  -0.37032  -0.30602
 Alpha virt. eigenvalues --   -0.01460   0.06273   0.09088   0.10445   0.12249
 Alpha virt. eigenvalues --    0.12760   0.12909   0.14085   0.14211   0.17838
 Alpha virt. eigenvalues --    0.18051   0.19584   0.19725   0.20134   0.20175

 Mulliken charges:
               1
     1  C   -0.465360
     2  C   -0.010817
     3  C    0.014265
     4  C   -0.067333
     5  C   -0.066472
     6  C   -0.017958
     7  C   -0.066472
     8  C   -0.067333
     9  C   -0.017847
    10  H    0.097434
    11  C   -0.063162
    12  C    0.014265
    13  C   -0.017846
    14  C   -0.017958
    15  C   -0.062534
    16  H    0.096142
    17  C   -0.062535
    18  C   -0.010816
    19  H    0.096142
    20  H    0.097434
    21  C   -0.063163
    22  H    0.093636
    23  H    0.093636
    24  C   -0.465361
    25  H    0.093854
    26  H    0.093854
    27  Si   0.902314
    28  C   -0.498137
    29  C   -0.502107
    30  C   -0.498140
    31  Si   0.902315
    32  C   -0.502106
    33  C   -0.498136
    34  C   -0.498142
    35  H    0.109584
    36  H    0.105333
    37  H    0.109597
    38  H    0.111110
    39  H    0.108326
    40  H    0.104419
    41  H    0.111110
    42  H    0.104419
    43  H    0.108324
    44  H    0.108319
    45  H    0.104422
    46  H    0.111114
    47  H    0.109586
    48  H    0.109595
    49  H    0.105334
    50  H    0.111114
    51  H    0.104422
    52  H    0.108317
 Sum of Mulliken charges =  -0.00000

 Dipole moment (field-independent basis, Debye):
    X=             -0.0000    Y=              0.0000    Z=              0.0002  Tot=              0.0002
 Quadrupole moment (field-independent basis, Debye-Ang):
   XX=           -133.3072   YY=           -150.0957   ZZ=           -176.3350
   XY=             -0.1664   XZ=             -0.0007   YZ=              0.0018

 Normal termination of Gaussian 16 at Tue Jan 18 09:55:17 2022.
